#LAMMPS data file

24590 atoms
12660 bonds
6330 angles
0 dihedrals
0 impropers

3 atom types
1 bond types
1 angle types
0 dihedral types
0 improper types

  0.00000   122.97560   xlo xhi
  0.00000   119.28000   ylo yhi
  0.00000   100.00000   zlo zhi

Masses

1	12.01070
2	15.99940
3	 1.00797

Pair Coeffs

1	 0.07080	 3.21400
2	 0.15530	 3.16552
3	 0.00000	 0.00000

Bond Coeffs

1	 0.00000	 1.00000

Angle Coeffs

1	 0.00000	109.47000

Atoms

      1       1  1   0.00000   0.00000   0.71000   5.00000
      2       1  1   0.00000   0.00000   2.13000   5.00000
      3       1  1   0.00000   1.22975   2.84000   5.00000
      4       1  1   0.00000   1.22975   0.00000   5.00000
      5       2  1   0.00000   0.00000   4.97000   5.00000
      6       2  1   0.00000   0.00000   6.39000   5.00000
      7       2  1   0.00000   1.22975   7.10000   5.00000
      8       2  1   0.00000   1.22975   4.26000   5.00000
      9       3  1   0.00000   0.00000   9.23000   5.00000
     10       3  1   0.00000   0.00000  10.64999   5.00000
     11       3  1   0.00000   1.22975  11.36000   5.00000
     12       3  1   0.00000   1.22975   8.52000   5.00000
     13       4  1   0.00000   0.00000  13.49000   5.00000
     14       4  1   0.00000   0.00000  14.91000   5.00000
     15       4  1   0.00000   1.22975  15.62000   5.00000
     16       4  1   0.00000   1.22975  12.78000   5.00000
     17       5  1   0.00000   0.00000  17.75000   5.00000
     18       5  1   0.00000   0.00000  19.16999   5.00000
     19       5  1   0.00000   1.22975  19.88000   5.00000
     20       5  1   0.00000   1.22975  17.04000   5.00000
     21       6  1   0.00000   0.00000  22.01000   5.00000
     22       6  1   0.00000   0.00000  23.43000   5.00000
     23       6  1   0.00000   1.22975  24.14000   5.00000
     24       6  1   0.00000   1.22975  21.30000   5.00000
     25       7  1   0.00000   0.00000  26.27000   5.00000
     26       7  1   0.00000   0.00000  27.69000   5.00000
     27       7  1   0.00000   1.22975  28.40000   5.00000
     28       7  1   0.00000   1.22975  25.56000   5.00000
     29       8  1   0.00000   0.00000  30.53000   5.00000
     30       8  1   0.00000   0.00000  31.95000   5.00000
     31       8  1   0.00000   1.22975  32.66000   5.00000
     32       8  1   0.00000   1.22975  29.82000   5.00000
     33       9  1   0.00000   0.00000  34.79000   5.00000
     34       9  1   0.00000   0.00000  36.21000   5.00000
     35       9  1   0.00000   1.22975  36.92000   5.00000
     36       9  1   0.00000   1.22975  34.08000   5.00000
     37      10  1   0.00000   0.00000  39.05000   5.00000
     38      10  1   0.00000   0.00000  40.47000   5.00000
     39      10  1   0.00000   1.22975  41.18000   5.00000
     40      10  1   0.00000   1.22975  38.34000   5.00000
     41      11  1   0.00000   0.00000  43.31000   5.00000
     42      11  1   0.00000   0.00000  44.73000   5.00000
     43      11  1   0.00000   1.22975  45.44000   5.00000
     44      11  1   0.00000   1.22975  42.60000   5.00000
     45      12  1   0.00000   0.00000  47.57000   5.00000
     46      12  1   0.00000   0.00000  48.99000   5.00000
     47      12  1   0.00000   1.22975  49.70000   5.00000
     48      12  1   0.00000   1.22975  46.86000   5.00000
     49      13  1   0.00000   0.00000  51.83000   5.00000
     50      13  1   0.00000   0.00000  53.25000   5.00000
     51      13  1   0.00000   1.22975  53.96000   5.00000
     52      13  1   0.00000   1.22975  51.12000   5.00000
     53      14  1   0.00000   0.00000  56.09000   5.00000
     54      14  1   0.00000   0.00000  57.51000   5.00000
     55      14  1   0.00000   1.22975  58.22000   5.00000
     56      14  1   0.00000   1.22975  55.38000   5.00000
     57      15  1   0.00000   0.00000  60.35000   5.00000
     58      15  1   0.00000   0.00000  61.77000   5.00000
     59      15  1   0.00000   1.22975  62.48000   5.00000
     60      15  1   0.00000   1.22975  59.64000   5.00000
     61      16  1   0.00000   0.00000  64.61000   5.00000
     62      16  1   0.00000   0.00000  66.03000   5.00000
     63      16  1   0.00000   1.22975  66.74000   5.00000
     64      16  1   0.00000   1.22975  63.90000   5.00000
     65      17  1   0.00000   0.00000  68.87000   5.00000
     66      17  1   0.00000   0.00000  70.28999   5.00000
     67      17  1   0.00000   1.22975  71.00000   5.00000
     68      17  1   0.00000   1.22975  68.16000   5.00000
     69      18  1   0.00000   0.00000  73.13000   5.00000
     70      18  1   0.00000   0.00000  74.54999   5.00000
     71      18  1   0.00000   1.22975  75.26000   5.00000
     72      18  1   0.00000   1.22975  72.42000   5.00000
     73      19  1   0.00000   0.00000  77.39000   5.00000
     74      19  1   0.00000   0.00000  78.81000   5.00000
     75      19  1   0.00000   1.22975  79.52000   5.00000
     76      19  1   0.00000   1.22975  76.68000   5.00000
     77      20  1   0.00000   0.00000  81.64999   5.00000
     78      20  1   0.00000   0.00000  83.07000   5.00000
     79      20  1   0.00000   1.22975  83.78000   5.00000
     80      20  1   0.00000   1.22975  80.94000   5.00000
     81      21  1   0.00000   0.00000  85.91000   5.00000
     82      21  1   0.00000   0.00000  87.33000   5.00000
     83      21  1   0.00000   1.22975  88.03999   5.00000
     84      21  1   0.00000   1.22975  85.20000   5.00000
     85      22  1   0.00000   0.00000  90.17000   5.00000
     86      22  1   0.00000   0.00000  91.59000   5.00000
     87      22  1   0.00000   1.22975  92.30000   5.00000
     88      22  1   0.00000   1.22975  89.46000   5.00000
     89      23  1   0.00000   0.00000  94.42999   5.00000
     90      23  1   0.00000   0.00000  95.84999   5.00000
     91      23  1   0.00000   1.22975  96.56000   5.00000
     92      23  1   0.00000   1.22975  93.72000   5.00000
     93      24  1   0.00000   0.00000  98.69000   5.00000
     94      24  1   0.00000   0.00000 100.11000   5.00000
     95      24  1   0.00000   1.22975 100.82000   5.00000
     96      24  1   0.00000   1.22975  97.98000   5.00000
     97      25  1   0.00000   0.00000 102.95000   5.00000
     98      25  1   0.00000   0.00000 104.37000   5.00000
     99      25  1   0.00000   1.22975 105.08000   5.00000
    100      25  1   0.00000   1.22975 102.24000   5.00000
    101      26  1   0.00000   0.00000 107.21000   5.00000
    102      26  1   0.00000   0.00000 108.63000   5.00000
    103      26  1   0.00000   1.22975 109.34000   5.00000
    104      26  1   0.00000   1.22975 106.50000   5.00000
    105      27  1   0.00000   0.00000 111.47000   5.00000
    106      27  1   0.00000   0.00000 112.89000   5.00000
    107      27  1   0.00000   1.22975 113.60000   5.00000
    108      27  1   0.00000   1.22975 110.76000   5.00000
    109      28  1   0.00000   0.00000 115.73000   5.00000
    110      28  1   0.00000   0.00000 117.14999   5.00000
    111      28  1   0.00000   1.22975 117.86000   5.00000
    112      28  1   0.00000   1.22975 115.02000   5.00000
    113      29  1   0.00000   2.45952   0.71000   5.00000
    114      29  1   0.00000   2.45952   2.13000   5.00000
    115      29  1   0.00000   3.68927   2.84000   5.00000
    116      29  1   0.00000   3.68927   0.00000   5.00000
    117      30  1   0.00000   2.45952   4.97000   5.00000
    118      30  1   0.00000   2.45952   6.39000   5.00000
    119      30  1   0.00000   3.68927   7.10000   5.00000
    120      30  1   0.00000   3.68927   4.26000   5.00000
    121      31  1   0.00000   2.45952   9.23000   5.00000
    122      31  1   0.00000   2.45952  10.64999   5.00000
    123      31  1   0.00000   3.68927  11.36000   5.00000
    124      31  1   0.00000   3.68927   8.52000   5.00000
    125      32  1   0.00000   2.45952  13.49000   5.00000
    126      32  1   0.00000   2.45952  14.91000   5.00000
    127      32  1   0.00000   3.68927  15.62000   5.00000
    128      32  1   0.00000   3.68927  12.78000   5.00000
    129      33  1   0.00000   2.45952  17.75000   5.00000
    130      33  1   0.00000   2.45952  19.16999   5.00000
    131      33  1   0.00000   3.68927  19.88000   5.00000
    132      33  1   0.00000   3.68927  17.04000   5.00000
    133      34  1   0.00000   2.45952  22.01000   5.00000
    134      34  1   0.00000   2.45952  23.43000   5.00000
    135      34  1   0.00000   3.68927  24.14000   5.00000
    136      34  1   0.00000   3.68927  21.30000   5.00000
    137      35  1   0.00000   2.45952  26.27000   5.00000
    138      35  1   0.00000   2.45952  27.69000   5.00000
    139      35  1   0.00000   3.68927  28.40000   5.00000
    140      35  1   0.00000   3.68927  25.56000   5.00000
    141      36  1   0.00000   2.45952  30.53000   5.00000
    142      36  1   0.00000   2.45952  31.95000   5.00000
    143      36  1   0.00000   3.68927  32.66000   5.00000
    144      36  1   0.00000   3.68927  29.82000   5.00000
    145      37  1   0.00000   2.45952  34.79000   5.00000
    146      37  1   0.00000   2.45952  36.21000   5.00000
    147      37  1   0.00000   3.68927  36.92000   5.00000
    148      37  1   0.00000   3.68927  34.08000   5.00000
    149      38  1   0.00000   2.45952  39.05000   5.00000
    150      38  1   0.00000   2.45952  40.47000   5.00000
    151      38  1   0.00000   3.68927  41.18000   5.00000
    152      38  1   0.00000   3.68927  38.34000   5.00000
    153      39  1   0.00000   2.45952  43.31000   5.00000
    154      39  1   0.00000   2.45952  44.73000   5.00000
    155      39  1   0.00000   3.68927  45.44000   5.00000
    156      39  1   0.00000   3.68927  42.60000   5.00000
    157      40  1   0.00000   2.45952  47.57000   5.00000
    158      40  1   0.00000   2.45952  48.99000   5.00000
    159      40  1   0.00000   3.68927  49.70000   5.00000
    160      40  1   0.00000   3.68927  46.86000   5.00000
    161      41  1   0.00000   2.45952  51.83000   5.00000
    162      41  1   0.00000   2.45952  53.25000   5.00000
    163      41  1   0.00000   3.68927  53.96000   5.00000
    164      41  1   0.00000   3.68927  51.12000   5.00000
    165      42  1   0.00000   2.45952  56.09000   5.00000
    166      42  1   0.00000   2.45952  57.51000   5.00000
    167      42  1   0.00000   3.68927  58.22000   5.00000
    168      42  1   0.00000   3.68927  55.38000   5.00000
    169      43  1   0.00000   2.45952  60.35000   5.00000
    170      43  1   0.00000   2.45952  61.77000   5.00000
    171      43  1   0.00000   3.68927  62.48000   5.00000
    172      43  1   0.00000   3.68927  59.64000   5.00000
    173      44  1   0.00000   2.45952  64.61000   5.00000
    174      44  1   0.00000   2.45952  66.03000   5.00000
    175      44  1   0.00000   3.68927  66.74000   5.00000
    176      44  1   0.00000   3.68927  63.90000   5.00000
    177      45  1   0.00000   2.45952  68.87000   5.00000
    178      45  1   0.00000   2.45952  70.28999   5.00000
    179      45  1   0.00000   3.68927  71.00000   5.00000
    180      45  1   0.00000   3.68927  68.16000   5.00000
    181      46  1   0.00000   2.45952  73.13000   5.00000
    182      46  1   0.00000   2.45952  74.54999   5.00000
    183      46  1   0.00000   3.68927  75.26000   5.00000
    184      46  1   0.00000   3.68927  72.42000   5.00000
    185      47  1   0.00000   2.45952  77.39000   5.00000
    186      47  1   0.00000   2.45952  78.81000   5.00000
    187      47  1   0.00000   3.68927  79.52000   5.00000
    188      47  1   0.00000   3.68927  76.68000   5.00000
    189      48  1   0.00000   2.45952  81.64999   5.00000
    190      48  1   0.00000   2.45952  83.07000   5.00000
    191      48  1   0.00000   3.68927  83.78000   5.00000
    192      48  1   0.00000   3.68927  80.94000   5.00000
    193      49  1   0.00000   2.45952  85.91000   5.00000
    194      49  1   0.00000   2.45952  87.33000   5.00000
    195      49  1   0.00000   3.68927  88.03999   5.00000
    196      49  1   0.00000   3.68927  85.20000   5.00000
    197      50  1   0.00000   2.45952  90.17000   5.00000
    198      50  1   0.00000   2.45952  91.59000   5.00000
    199      50  1   0.00000   3.68927  92.30000   5.00000
    200      50  1   0.00000   3.68927  89.46000   5.00000
    201      51  1   0.00000   2.45952  94.42999   5.00000
    202      51  1   0.00000   2.45952  95.84999   5.00000
    203      51  1   0.00000   3.68927  96.56000   5.00000
    204      51  1   0.00000   3.68927  93.72000   5.00000
    205      52  1   0.00000   2.45952  98.69000   5.00000
    206      52  1   0.00000   2.45952 100.11000   5.00000
    207      52  1   0.00000   3.68927 100.82000   5.00000
    208      52  1   0.00000   3.68927  97.98000   5.00000
    209      53  1   0.00000   2.45952 102.95000   5.00000
    210      53  1   0.00000   2.45952 104.37000   5.00000
    211      53  1   0.00000   3.68927 105.08000   5.00000
    212      53  1   0.00000   3.68927 102.24000   5.00000
    213      54  1   0.00000   2.45952 107.21000   5.00000
    214      54  1   0.00000   2.45952 108.63000   5.00000
    215      54  1   0.00000   3.68927 109.34000   5.00000
    216      54  1   0.00000   3.68927 106.50000   5.00000
    217      55  1   0.00000   2.45952 111.47000   5.00000
    218      55  1   0.00000   2.45952 112.89000   5.00000
    219      55  1   0.00000   3.68927 113.60000   5.00000
    220      55  1   0.00000   3.68927 110.76000   5.00000
    221      56  1   0.00000   2.45952 115.73000   5.00000
    222      56  1   0.00000   2.45952 117.14999   5.00000
    223      56  1   0.00000   3.68927 117.86000   5.00000
    224      56  1   0.00000   3.68927 115.02000   5.00000
    225      57  1   0.00000   4.91903   0.71000   5.00000
    226      57  1   0.00000   4.91903   2.13000   5.00000
    227      57  1   0.00000   6.14878   2.84000   5.00000
    228      57  1   0.00000   6.14878   0.00000   5.00000
    229      58  1   0.00000   4.91903   4.97000   5.00000
    230      58  1   0.00000   4.91903   6.39000   5.00000
    231      58  1   0.00000   6.14878   7.10000   5.00000
    232      58  1   0.00000   6.14878   4.26000   5.00000
    233      59  1   0.00000   4.91903   9.23000   5.00000
    234      59  1   0.00000   4.91903  10.64999   5.00000
    235      59  1   0.00000   6.14878  11.36000   5.00000
    236      59  1   0.00000   6.14878   8.52000   5.00000
    237      60  1   0.00000   4.91903  13.49000   5.00000
    238      60  1   0.00000   4.91903  14.91000   5.00000
    239      60  1   0.00000   6.14878  15.62000   5.00000
    240      60  1   0.00000   6.14878  12.78000   5.00000
    241      61  1   0.00000   4.91903  17.75000   5.00000
    242      61  1   0.00000   4.91903  19.16999   5.00000
    243      61  1   0.00000   6.14878  19.88000   5.00000
    244      61  1   0.00000   6.14878  17.04000   5.00000
    245      62  1   0.00000   4.91903  22.01000   5.00000
    246      62  1   0.00000   4.91903  23.43000   5.00000
    247      62  1   0.00000   6.14878  24.14000   5.00000
    248      62  1   0.00000   6.14878  21.30000   5.00000
    249      63  1   0.00000   4.91903  26.27000   5.00000
    250      63  1   0.00000   4.91903  27.69000   5.00000
    251      63  1   0.00000   6.14878  28.40000   5.00000
    252      63  1   0.00000   6.14878  25.56000   5.00000
    253      64  1   0.00000   4.91903  30.53000   5.00000
    254      64  1   0.00000   4.91903  31.95000   5.00000
    255      64  1   0.00000   6.14878  32.66000   5.00000
    256      64  1   0.00000   6.14878  29.82000   5.00000
    257      65  1   0.00000   4.91903  34.79000   5.00000
    258      65  1   0.00000   4.91903  36.21000   5.00000
    259      65  1   0.00000   6.14878  36.92000   5.00000
    260      65  1   0.00000   6.14878  34.08000   5.00000
    261      66  1   0.00000   4.91903  39.05000   5.00000
    262      66  1   0.00000   4.91903  40.47000   5.00000
    263      66  1   0.00000   6.14878  41.18000   5.00000
    264      66  1   0.00000   6.14878  38.34000   5.00000
    265      67  1   0.00000   4.91903  43.31000   5.00000
    266      67  1   0.00000   4.91903  44.73000   5.00000
    267      67  1   0.00000   6.14878  45.44000   5.00000
    268      67  1   0.00000   6.14878  42.60000   5.00000
    269      68  1   0.00000   4.91903  47.57000   5.00000
    270      68  1   0.00000   4.91903  48.99000   5.00000
    271      68  1   0.00000   6.14878  49.70000   5.00000
    272      68  1   0.00000   6.14878  46.86000   5.00000
    273      69  1   0.00000   4.91903  51.83000   5.00000
    274      69  1   0.00000   4.91903  53.25000   5.00000
    275      69  1   0.00000   6.14878  53.96000   5.00000
    276      69  1   0.00000   6.14878  51.12000   5.00000
    277      70  1   0.00000   4.91903  56.09000   5.00000
    278      70  1   0.00000   4.91903  57.51000   5.00000
    279      70  1   0.00000   6.14878  58.22000   5.00000
    280      70  1   0.00000   6.14878  55.38000   5.00000
    281      71  1   0.00000   4.91903  60.35000   5.00000
    282      71  1   0.00000   4.91903  61.77000   5.00000
    283      71  1   0.00000   6.14878  62.48000   5.00000
    284      71  1   0.00000   6.14878  59.64000   5.00000
    285      72  1   0.00000   4.91903  64.61000   5.00000
    286      72  1   0.00000   4.91903  66.03000   5.00000
    287      72  1   0.00000   6.14878  66.74000   5.00000
    288      72  1   0.00000   6.14878  63.90000   5.00000
    289      73  1   0.00000   4.91903  68.87000   5.00000
    290      73  1   0.00000   4.91903  70.28999   5.00000
    291      73  1   0.00000   6.14878  71.00000   5.00000
    292      73  1   0.00000   6.14878  68.16000   5.00000
    293      74  1   0.00000   4.91903  73.13000   5.00000
    294      74  1   0.00000   4.91903  74.54999   5.00000
    295      74  1   0.00000   6.14878  75.26000   5.00000
    296      74  1   0.00000   6.14878  72.42000   5.00000
    297      75  1   0.00000   4.91903  77.39000   5.00000
    298      75  1   0.00000   4.91903  78.81000   5.00000
    299      75  1   0.00000   6.14878  79.52000   5.00000
    300      75  1   0.00000   6.14878  76.68000   5.00000
    301      76  1   0.00000   4.91903  81.64999   5.00000
    302      76  1   0.00000   4.91903  83.07000   5.00000
    303      76  1   0.00000   6.14878  83.78000   5.00000
    304      76  1   0.00000   6.14878  80.94000   5.00000
    305      77  1   0.00000   4.91903  85.91000   5.00000
    306      77  1   0.00000   4.91903  87.33000   5.00000
    307      77  1   0.00000   6.14878  88.03999   5.00000
    308      77  1   0.00000   6.14878  85.20000   5.00000
    309      78  1   0.00000   4.91903  90.17000   5.00000
    310      78  1   0.00000   4.91903  91.59000   5.00000
    311      78  1   0.00000   6.14878  92.30000   5.00000
    312      78  1   0.00000   6.14878  89.46000   5.00000
    313      79  1   0.00000   4.91903  94.42999   5.00000
    314      79  1   0.00000   4.91903  95.84999   5.00000
    315      79  1   0.00000   6.14878  96.56000   5.00000
    316      79  1   0.00000   6.14878  93.72000   5.00000
    317      80  1   0.00000   4.91903  98.69000   5.00000
    318      80  1   0.00000   4.91903 100.11000   5.00000
    319      80  1   0.00000   6.14878 100.82000   5.00000
    320      80  1   0.00000   6.14878  97.98000   5.00000
    321      81  1   0.00000   4.91903 102.95000   5.00000
    322      81  1   0.00000   4.91903 104.37000   5.00000
    323      81  1   0.00000   6.14878 105.08000   5.00000
    324      81  1   0.00000   6.14878 102.24000   5.00000
    325      82  1   0.00000   4.91903 107.21000   5.00000
    326      82  1   0.00000   4.91903 108.63000   5.00000
    327      82  1   0.00000   6.14878 109.34000   5.00000
    328      82  1   0.00000   6.14878 106.50000   5.00000
    329      83  1   0.00000   4.91903 111.47000   5.00000
    330      83  1   0.00000   4.91903 112.89000   5.00000
    331      83  1   0.00000   6.14878 113.60000   5.00000
    332      83  1   0.00000   6.14878 110.76000   5.00000
    333      84  1   0.00000   4.91903 115.73000   5.00000
    334      84  1   0.00000   4.91903 117.14999   5.00000
    335      84  1   0.00000   6.14878 117.86000   5.00000
    336      84  1   0.00000   6.14878 115.02000   5.00000
    337      85  1   0.00000   7.37854   0.71000   5.00000
    338      85  1   0.00000   7.37854   2.13000   5.00000
    339      85  1   0.00000   8.60829   2.84000   5.00000
    340      85  1   0.00000   8.60829   0.00000   5.00000
    341      86  1   0.00000   7.37854   4.97000   5.00000
    342      86  1   0.00000   7.37854   6.39000   5.00000
    343      86  1   0.00000   8.60829   7.10000   5.00000
    344      86  1   0.00000   8.60829   4.26000   5.00000
    345      87  1   0.00000   7.37854   9.23000   5.00000
    346      87  1   0.00000   7.37854  10.64999   5.00000
    347      87  1   0.00000   8.60829  11.36000   5.00000
    348      87  1   0.00000   8.60829   8.52000   5.00000
    349      88  1   0.00000   7.37854  13.49000   5.00000
    350      88  1   0.00000   7.37854  14.91000   5.00000
    351      88  1   0.00000   8.60829  15.62000   5.00000
    352      88  1   0.00000   8.60829  12.78000   5.00000
    353      89  1   0.00000   7.37854  17.75000   5.00000
    354      89  1   0.00000   7.37854  19.16999   5.00000
    355      89  1   0.00000   8.60829  19.88000   5.00000
    356      89  1   0.00000   8.60829  17.04000   5.00000
    357      90  1   0.00000   7.37854  22.01000   5.00000
    358      90  1   0.00000   7.37854  23.43000   5.00000
    359      90  1   0.00000   8.60829  24.14000   5.00000
    360      90  1   0.00000   8.60829  21.30000   5.00000
    361      91  1   0.00000   7.37854  26.27000   5.00000
    362      91  1   0.00000   7.37854  27.69000   5.00000
    363      91  1   0.00000   8.60829  28.40000   5.00000
    364      91  1   0.00000   8.60829  25.56000   5.00000
    365      92  1   0.00000   7.37854  30.53000   5.00000
    366      92  1   0.00000   7.37854  31.95000   5.00000
    367      92  1   0.00000   8.60829  32.66000   5.00000
    368      92  1   0.00000   8.60829  29.82000   5.00000
    369      93  1   0.00000   7.37854  34.79000   5.00000
    370      93  1   0.00000   7.37854  36.21000   5.00000
    371      93  1   0.00000   8.60829  36.92000   5.00000
    372      93  1   0.00000   8.60829  34.08000   5.00000
    373      94  1   0.00000   7.37854  39.05000   5.00000
    374      94  1   0.00000   7.37854  40.47000   5.00000
    375      94  1   0.00000   8.60829  41.18000   5.00000
    376      94  1   0.00000   8.60829  38.34000   5.00000
    377      95  1   0.00000   7.37854  43.31000   5.00000
    378      95  1   0.00000   7.37854  44.73000   5.00000
    379      95  1   0.00000   8.60829  45.44000   5.00000
    380      95  1   0.00000   8.60829  42.60000   5.00000
    381      96  1   0.00000   7.37854  47.57000   5.00000
    382      96  1   0.00000   7.37854  48.99000   5.00000
    383      96  1   0.00000   8.60829  49.70000   5.00000
    384      96  1   0.00000   8.60829  46.86000   5.00000
    385      97  1   0.00000   7.37854  51.83000   5.00000
    386      97  1   0.00000   7.37854  53.25000   5.00000
    387      97  1   0.00000   8.60829  53.96000   5.00000
    388      97  1   0.00000   8.60829  51.12000   5.00000
    389      98  1   0.00000   7.37854  56.09000   5.00000
    390      98  1   0.00000   7.37854  57.51000   5.00000
    391      98  1   0.00000   8.60829  58.22000   5.00000
    392      98  1   0.00000   8.60829  55.38000   5.00000
    393      99  1   0.00000   7.37854  60.35000   5.00000
    394      99  1   0.00000   7.37854  61.77000   5.00000
    395      99  1   0.00000   8.60829  62.48000   5.00000
    396      99  1   0.00000   8.60829  59.64000   5.00000
    397     100  1   0.00000   7.37854  64.61000   5.00000
    398     100  1   0.00000   7.37854  66.03000   5.00000
    399     100  1   0.00000   8.60829  66.74000   5.00000
    400     100  1   0.00000   8.60829  63.90000   5.00000
    401     101  1   0.00000   7.37854  68.87000   5.00000
    402     101  1   0.00000   7.37854  70.28999   5.00000
    403     101  1   0.00000   8.60829  71.00000   5.00000
    404     101  1   0.00000   8.60829  68.16000   5.00000
    405     102  1   0.00000   7.37854  73.13000   5.00000
    406     102  1   0.00000   7.37854  74.54999   5.00000
    407     102  1   0.00000   8.60829  75.26000   5.00000
    408     102  1   0.00000   8.60829  72.42000   5.00000
    409     103  1   0.00000   7.37854  77.39000   5.00000
    410     103  1   0.00000   7.37854  78.81000   5.00000
    411     103  1   0.00000   8.60829  79.52000   5.00000
    412     103  1   0.00000   8.60829  76.68000   5.00000
    413     104  1   0.00000   7.37854  81.64999   5.00000
    414     104  1   0.00000   7.37854  83.07000   5.00000
    415     104  1   0.00000   8.60829  83.78000   5.00000
    416     104  1   0.00000   8.60829  80.94000   5.00000
    417     105  1   0.00000   7.37854  85.91000   5.00000
    418     105  1   0.00000   7.37854  87.33000   5.00000
    419     105  1   0.00000   8.60829  88.03999   5.00000
    420     105  1   0.00000   8.60829  85.20000   5.00000
    421     106  1   0.00000   7.37854  90.17000   5.00000
    422     106  1   0.00000   7.37854  91.59000   5.00000
    423     106  1   0.00000   8.60829  92.30000   5.00000
    424     106  1   0.00000   8.60829  89.46000   5.00000
    425     107  1   0.00000   7.37854  94.42999   5.00000
    426     107  1   0.00000   7.37854  95.84999   5.00000
    427     107  1   0.00000   8.60829  96.56000   5.00000
    428     107  1   0.00000   8.60829  93.72000   5.00000
    429     108  1   0.00000   7.37854  98.69000   5.00000
    430     108  1   0.00000   7.37854 100.11000   5.00000
    431     108  1   0.00000   8.60829 100.82000   5.00000
    432     108  1   0.00000   8.60829  97.98000   5.00000
    433     109  1   0.00000   7.37854 102.95000   5.00000
    434     109  1   0.00000   7.37854 104.37000   5.00000
    435     109  1   0.00000   8.60829 105.08000   5.00000
    436     109  1   0.00000   8.60829 102.24000   5.00000
    437     110  1   0.00000   7.37854 107.21000   5.00000
    438     110  1   0.00000   7.37854 108.63000   5.00000
    439     110  1   0.00000   8.60829 109.34000   5.00000
    440     110  1   0.00000   8.60829 106.50000   5.00000
    441     111  1   0.00000   7.37854 111.47000   5.00000
    442     111  1   0.00000   7.37854 112.89000   5.00000
    443     111  1   0.00000   8.60829 113.60000   5.00000
    444     111  1   0.00000   8.60829 110.76000   5.00000
    445     112  1   0.00000   7.37854 115.73000   5.00000
    446     112  1   0.00000   7.37854 117.14999   5.00000
    447     112  1   0.00000   8.60829 117.86000   5.00000
    448     112  1   0.00000   8.60829 115.02000   5.00000
    449     113  1   0.00000   9.83805   0.71000   5.00000
    450     113  1   0.00000   9.83805   2.13000   5.00000
    451     113  1   0.00000  11.06781   2.84000   5.00000
    452     113  1   0.00000  11.06781   0.00000   5.00000
    453     114  1   0.00000   9.83805   4.97000   5.00000
    454     114  1   0.00000   9.83805   6.39000   5.00000
    455     114  1   0.00000  11.06781   7.10000   5.00000
    456     114  1   0.00000  11.06781   4.26000   5.00000
    457     115  1   0.00000   9.83805   9.23000   5.00000
    458     115  1   0.00000   9.83805  10.64999   5.00000
    459     115  1   0.00000  11.06781  11.36000   5.00000
    460     115  1   0.00000  11.06781   8.52000   5.00000
    461     116  1   0.00000   9.83805  13.49000   5.00000
    462     116  1   0.00000   9.83805  14.91000   5.00000
    463     116  1   0.00000  11.06781  15.62000   5.00000
    464     116  1   0.00000  11.06781  12.78000   5.00000
    465     117  1   0.00000   9.83805  17.75000   5.00000
    466     117  1   0.00000   9.83805  19.16999   5.00000
    467     117  1   0.00000  11.06781  19.88000   5.00000
    468     117  1   0.00000  11.06781  17.04000   5.00000
    469     118  1   0.00000   9.83805  22.01000   5.00000
    470     118  1   0.00000   9.83805  23.43000   5.00000
    471     118  1   0.00000  11.06781  24.14000   5.00000
    472     118  1   0.00000  11.06781  21.30000   5.00000
    473     119  1   0.00000   9.83805  26.27000   5.00000
    474     119  1   0.00000   9.83805  27.69000   5.00000
    475     119  1   0.00000  11.06781  28.40000   5.00000
    476     119  1   0.00000  11.06781  25.56000   5.00000
    477     120  1   0.00000   9.83805  30.53000   5.00000
    478     120  1   0.00000   9.83805  31.95000   5.00000
    479     120  1   0.00000  11.06781  32.66000   5.00000
    480     120  1   0.00000  11.06781  29.82000   5.00000
    481     121  1   0.00000   9.83805  34.79000   5.00000
    482     121  1   0.00000   9.83805  36.21000   5.00000
    483     121  1   0.00000  11.06781  36.92000   5.00000
    484     121  1   0.00000  11.06781  34.08000   5.00000
    485     122  1   0.00000   9.83805  39.05000   5.00000
    486     122  1   0.00000   9.83805  40.47000   5.00000
    487     122  1   0.00000  11.06781  41.18000   5.00000
    488     122  1   0.00000  11.06781  38.34000   5.00000
    489     123  1   0.00000   9.83805  43.31000   5.00000
    490     123  1   0.00000   9.83805  44.73000   5.00000
    491     123  1   0.00000  11.06781  45.44000   5.00000
    492     123  1   0.00000  11.06781  42.60000   5.00000
    493     124  1   0.00000   9.83805  47.57000   5.00000
    494     124  1   0.00000   9.83805  48.99000   5.00000
    495     124  1   0.00000  11.06781  49.70000   5.00000
    496     124  1   0.00000  11.06781  46.86000   5.00000
    497     125  1   0.00000   9.83805  51.83000   5.00000
    498     125  1   0.00000   9.83805  53.25000   5.00000
    499     125  1   0.00000  11.06781  53.96000   5.00000
    500     125  1   0.00000  11.06781  51.12000   5.00000